LAMMPS data file via write_data, version 23 Jun 2022, timestep = 0

4000 atoms
3 atom types
3900 bonds
1 bond types

-30 30 xlo xhi
-30 30 ylo yhi
-30 30 zlo zhi

Masses

1 1
2 1
3 1

Atoms # full

1 1 2 0 -16.287836925900415 -29.96629155996216 11.049256326024185 0 1 0
2 1 2 0 -15.524271188703738 29.629482762610188 11.490242682601636 0 0 0
3 1 2 0 -14.760705451507064 29.225257085182534 11.931229039179087 0 0 0
4 1 2 0 -13.99713971431039 28.82103140775488 12.372215395756538 0 0 0
5 1 2 0 -13.233573977113716 28.416805730327226 12.813201752333987 0 0 0
6 1 2 0 -12.470008239917043 28.012580052899573 13.254188108911437 0 0 0
7 1 2 0 -11.706442502720368 27.60835437547192 13.695174465488888 0 0 0
8 1 2 0 -10.942876765523694 27.204128698044265 14.136160822066337 0 0 0
9 1 2 0 -10.17931102832702 26.79990302061661 14.577147178643788 0 0 0
10 1 2 0 -9.415745291130346 26.395677343188957 15.018133535221239 0 0 0
11 1 2 0 -8.652179553933673 25.991451665761304 15.459119891798688 0 0 0
12 1 2 0 -7.8886138167369975 25.58722598833365 15.900106248376138 0 0 0
13 1 2 0 -7.125048079540322 25.183000310905996 16.341092604953587 0 0 0
14 1 2 0 -6.36148234234365 24.778774633478342 16.782078961531038 0 0 0
15 1 2 0 -5.597916605146976 24.37454895605069 17.22306531810849 0 0 0
16 1 2 0 -4.8343508679503016 23.970323278623034 17.66405167468594 0 0 0
17 1 2 0 -4.070785130753627 23.56609760119538 18.10503803126339 0 0 0
18 1 2 0 -3.307219393556954 23.161871923767727 18.546024387840838 0 0 0
19 1 2 0 -2.543653656360278 22.75764624634007 18.987010744418292 0 0 0
20 1 2 0 -1.7800879191636048 22.353420568912416 19.42799710099574 0 0 0
21 1 1 0 -16.87107477003612 29.371650434298495 11.452261058259886 0 0 0
22 1 1 0 -14.941033344568028 -29.708459231650465 11.087237950365937 0 1 0
23 1 1 0 -15.343943295642774 28.563199079443187 12.334233771414786 0 0 0
24 1 1 0 -13.41390187017468 29.483089413494227 11.969210663520837 0 0 0
25 1 1 0 -13.816811821249425 27.75474772458788 13.216206484569685 0 0 0
26 1 1 0 -11.886770395781333 28.67463805863892 12.851183376675738 0 0 0
27 1 1 0 -12.289680346856077 26.946296369732572 14.098179197724587 0 0 0
28 1 1 0 -10.359638921387985 27.86618670378361 13.733156089830638 0 0 0
29 1 1 0 -10.762548872462729 26.137845014877264 14.980151910879487 0 0 0
30 1 1 0 -8.832507446994637 27.057735348928304 14.615128802985538 0 0 0
31 1 1 0 -9.235417398069382 25.329393660021957 15.862124624034386 0 0 0
32 1 1 0 -7.305375972601288 26.249283994072997 15.49710151614044 0 0 0
33 1 1 0 -7.708285923676032 24.520942305166646 16.744097337189288 0 0 0
34 1 1 0 -5.778244498207941 25.44083263921769 16.379074229295338 0 0 0
35 1 1 0 -6.181154449282684 23.712490950311338 17.62607005034419 0 0 0
36 1 1 0 -4.251113023814593 24.63238128436238 17.26104694245024 0 0 0
37 1 1 0 -4.654022974889337 22.90403959545603 18.508042763499088 0 0 0
38 1 1 0 -2.7239815494212456 23.823929929507074 18.14301965560514 0 0 0
39 1 1 0 -3.1268915004959874 22.095588240600723 19.39001547665399 0 0 0
40 1 1 0 -1.1968500750278963 23.015478574651766 19.02499236876004 0 0 0
41 2 2 0 27.300979305011204 -1.7693853421751058 11.847282658126371 -1 0 0
42 2 2 0 28.17447347942602 -2.0761049349647496 11.55774679046515 -1 0 0
43 2 2 0 29.047967653840836 -2.3828245277543934 11.268210922803929 -1 0 0
44 2 2 0 29.92146182825565 -2.6895441205440376 10.978675055142707 -1 0 0
45 2 2 0 -29.205043997329536 -2.9962637133336814 10.689139187481487 0 0 0
46 2 2 0 -28.33154982291472 -3.302983306123325 10.399603319820265 0 0 0
47 2 2 0 -27.458055648499904 -3.6097028989129694 10.110067452159043 0 0 0
48 2 2 0 -26.584561474085092 -3.916422491702613 9.820531584497823 0 0 0
49 2 2 0 -25.711067299670276 -4.223142084492257 9.530995716836602 0 0 0
50 2 2 0 -24.83757312525546 -4.529861677281901 9.24145984917538 0 0 0
51 2 2 0 -23.964078950840648 -4.8365812700715445 8.95192398151416 0 0 0
52 2 2 0 -23.090584776425832 -5.143300862861189 8.662388113852938 0 0 0
53 2 2 0 -22.217090602011016 -5.450020455650833 8.372852246191718 0 0 0
54 2 2 0 -21.343596427596204 -5.756740048440476 8.083316378530496 0 0 0
55 2 2 0 -20.470102253181388 -6.0634596412301205 7.793780510869275 0 0 0
56 2 2 0 -19.59660807876657 -6.370179234019764 7.504244643208054 0 0 0
57 2 2 0 -18.723113904351756 -6.676898826809408 7.214708775546832 0 0 0
58 2 2 0 -17.849619729936943 -6.983618419599052 6.925172907885612 0 0 0
59 2 2 0 -16.976125555522128 -7.2903380123886965 6.63563704022439 0 0 0
60 2 2 0 -16.102631381107315 -7.597057605178341 6.346101172563168 0 0 0
61 2 1 0 26.96862456508743 -2.6798713908699847 11.809131878551293 -1 0 0
62 2 1 0 28.506828219349796 -1.1656188862698706 11.595897570040227 -1 0 0
63 2 1 0 28.71561291391706 -3.2933105764492723 11.230060143228851 -1 0 0
64 2 1 0 -29.746183431820576 -1.7790580718491582 11.016825834717785 0 0 0
65 2 1 0 -29.53739873725331 -3.9067497620285607 10.650988407906407 0 0 0
66 2 1 0 -27.999195082990948 -2.3924972574284458 10.437754099395343 0 0 0
67 2 1 0 -27.79041038842368 -4.520188947607848 10.071916672583965 0 0 0
68 2 1 0 -26.252206734161316 -3.0059364430077338 9.858682364072902 0 0 0
69 2 1 0 -26.043422039594052 -5.133628133187136 9.492844937261523 0 0 0
70 2 1 0 -24.505218385331688 -3.6193756285870218 9.279610628750458 0 0 0
71 2 1 0 -24.29643369076442 -5.747067318766424 8.913773201939081 0 0 0
72 2 1 0 -22.75823003650206 -4.23281481416631 8.700538893428016 0 0 0
73 2 1 0 -22.549445341934792 -6.360506504345713 8.33470146661664 0 0 0
74 2 1 0 -21.011241687672428 -4.846253999745597 8.121467158105574 0 0 0
75 2 1 0 -20.80245699310516 -6.973945689924999 7.755629731294197 0 0 0
76 2 1 0 -19.2642533388428 -5.459693185324885 7.542395422783132 0 0 0
77 2 1 0 -19.055468644275532 -7.587384875504288 7.176557995971754 0 0 0
78 2 1 0 -17.51726499001317 -6.0731323709041725 6.96332368746069 0 0 0
79 2 1 0 -17.3084802954459 -8.200824061083576 6.597486260649312 0 0 0
80 2 1 0 -15.77027664118354 -6.686571556483461 6.384251952138247 0 0 0
81 3 2 0 2.2043913244165436 11.124997996429137 27.02321852466554 0 0 0
82 3 2 0 2.825089206007875 11.413240372716015 26.335795458206082 0 0 0
83 3 2 0 3.4457870875992054 11.701482749002892 25.64837239174662 0 0 0
84 3 2 0 4.066484969190537 11.989725125289771 24.96094932528716 0 0 0
85 3 2 0 4.687182850781868 12.277967501576649 24.2735262588277 0 0 0
86 3 2 0 5.307880732373199 12.566209877863527 23.58610319236824 0 0 0
87 3 2 0 5.928578613964531 12.854452254150406 22.89868012590878 0 0 0
88 3 2 0 6.549276495555861 13.142694630437283 22.21125705944932 0 0 0
89 3 2 0 7.169974377147192 13.430937006724161 21.523833992989857 0 0 0
90 3 2 0 7.790672258738524 13.719179383011038 20.836410926530398 0 0 0
91 3 2 0 8.411370140329854 14.007421759297916 20.14898786007094 0 0 0
92 3 2 0 9.032068021921186 14.295664135584795 19.461564793611476 0 0 0
93 3 2 0 9.652765903512517 14.583906511871673 18.774141727152017 0 0 0
94 3 2 0 10.273463785103846 14.87214888815855 18.086718660692554 0 0 0
95 3 2 0 10.89416166669518 15.160391264445428 17.399295594233095 0 0 0
96 3 2 0 11.514859548286509 15.448633640732305 16.711872527773636 0 0 0
97 3 2 0 12.13555742987784 15.736876017019185 16.024449461314173 0 0 0
98 3 2 0 12.756255311469172 16.025118393306062 15.337026394854714 0 0 0
99 3 2 0 13.376953193060505 16.31336076959294 14.649603328395251 0 0 0
100 3 2 0 13.997651074651834 16.601603145879817 13.962180261935792 0 0 0
101 3 1 0 2.9477758904218216 10.951510472045431 27.62170116092858 0 0 0
102 3 1 0 2.081704640002597 11.58672789709972 25.737312821943043 0 0 0
103 3 1 0 4.189171653604483 11.527995224619188 26.246855028009662 0 0 0
104 3 1 0 3.3231004031852587 12.163212649673476 24.36246668902412 0 0 0
105 3 1 0 5.430567416787146 12.104479977192943 24.87200889509074 0 0 0
106 3 1 0 4.56449616636792 12.739697402247232 22.9876205561052 0 0 0
107 3 1 0 6.671963179969809 12.6809647297667 23.49716276217182 0 0 0
108 3 1 0 5.805891929550583 13.316182154820988 21.61277442318628 0 0 0
109 3 1 0 7.9133589431524705 13.257449482340455 22.122316629252897 0 0 0
110 3 1 0 7.047287692733246 13.892666907394744 20.23792829026736 0 0 0
111 3 1 0 9.154754706335133 13.833934234914212 20.747470496333978 0 0 0
112 3 1 0 8.288683455915907 14.4691516599685 18.863082157348437 0 0 0
113 3 1 0 10.396150469517796 14.410418987487967 19.372624363415056 0 0 0
114 3 1 0 9.53007921909857 15.045636412542256 17.488236024429515 0 0 0
115 3 1 0 11.637546232700457 14.986903740061724 17.997778230496134 0 0 0
116 3 1 0 10.77147498228123 15.622121165116011 16.113389891510597 0 0 0
117 3 1 0 12.87894199588312 15.563388492635479 16.622932097577213 0 0 0
118 3 1 0 12.012870745463893 16.19860591768977 14.738543758591675 0 0 0
119 3 1 0 14.120337759065782 16.139873245209234 15.24808596465829 0 0 0
120 3 1 0 13.254266508646555 16.775090670263523 13.363697625672753 0 0 0
121 4 2 0 29.795375509625565 3.3583270466827857 -11.550216837990249 0 0 0
122 4 2 0 28.848357372220878 3.4053193945240516 -11.754785571356125 0 0 0
123 4 2 0 27.90133923481619 3.4523117423653176 -11.959354304722003 0 0 0
124 4 2 0 26.9543210974115 3.499304090206584 -12.163923038087882 0 0 0
125 4 2 0 26.00730296000681 3.54629643804785 -12.368491771453758 0 0 0
126 4 2 0 25.060284822602124 3.593288785889116 -12.573060504819637 0 0 0
127 4 2 0 24.113266685197434 3.6402811337303818 -12.777629238185515 0 0 0
128 4 2 0 23.166248547792748 3.6872734815716477 -12.982197971551393 0 0 0
129 4 2 0 22.219230410388057 3.7342658294129136 -13.186766704917272 0 0 0
130 4 2 0 21.272212272983367 3.78125817725418 -13.391335438283148 0 0 0
131 4 2 0 20.32519413557868 3.828250525095446 -13.595904171649027 0 0 0
132 4 2 0 19.37817599817399 3.875242872936712 -13.800472905014905 0 0 0
133 4 2 0 18.4311578607693 3.922235220777978 -14.005041638380783 0 0 0
134 4 2 0 17.484139723364613 3.9692275686192438 -14.20961037174666 0 0 0
135 4 2 0 16.537121585959923 4.01621991646051 -14.414179105112538 0 0 0
136 4 2 0 15.590103448555237 4.063212264301776 -14.618747838478416 0 0 0
137 4 2 0 14.643085311150546 4.110204612143042 -14.823316571844295 0 0 0
138 4 2 0 13.69606717374586 4.157196959984308 -15.027885305210171 0 0 0
139 4 2 0 12.749049036341168 4.204189307825574 -15.23245403857605 0 0 0
140 4 2 0 11.802030898936481 4.25118165566684 -15.437022771941928 0 0 0
141 4 1 0 29.828480065875887 2.458221392628428 -11.910236142882146 0 0 0
142 4 1 0 28.81525281597056 4.305425048578409 -11.394766266464227 0 0 0
143 4 1 0 27.93444379106651 2.55220608831096 -12.319373609613901 0 0 0
144 4 1 0 26.92121654116118 4.399409744260941 -11.803903733195982 0 0 0
145 4 1 0 26.040407516257133 2.646190783993492 -12.728511076345658 0 0 0
146 4 1 0 25.027180266351802 4.493394439943474 -12.213041199927739 0 0 0
147 4 1 0 24.146371241447753 2.740175479676024 -13.137648543077415 0 0 0
148 4 1 0 23.133143991542426 4.587379135626006 -12.622178666659494 0 0 0
149 4 1 0 22.252334966638376 2.834160175358556 -13.54678600980917 0 0 0
150 4 1 0 21.23910771673305 4.681363831308538 -13.03131613339125 0 0 0
151 4 1 0 20.358298691829 2.928144871041088 -13.955923476540926 0 0 0
152 4 1 0 19.345071441923672 4.77534852699107 -13.440453600123005 0 0 0
153 4 1 0 18.464262417019622 3.02212956672362 -14.365060943272681 0 0 0
154 4 1 0 17.451035167114295 4.8693332226736015 -13.849591066854762 0 0 0
155 4 1 0 16.570226142210245 3.116114262406152 -14.774198410004438 0 0 0
156 4 1 0 15.556998892304916 4.963317918356134 -14.258728533586517 0 0 0
157 4 1 0 14.676189867400868 3.2100989580886843 -15.183335876736193 0 0 0
158 4 1 0 13.66296261749554 5.057302614038665 -14.667866000318273 0 0 0
159 4 1 0 12.782153592591488 3.304083653771216 -15.59247334346795 0 0 0
160 4 1 0 11.76892634268616 5.151287309721198 -15.077003467050028 0 0 0
161 5 2 0 3.8930327585997997 23.621674286520925 -19.965694257107753 0 0 0
162 5 2 0 4.82344382979828 23.838432077294403 -20.1337754836927 0 0 0
163 5 2 0 5.753854900996759 24.055189868067878 -20.301856710277644 0 0 0
164 5 2 0 6.684265972195239 24.271947658841352 -20.46993793686259 0 0 0
165 5 2 0 7.614677043393718 24.488705449614827 -20.638019163447535 0 0 0
166 5 2 0 8.545088114592197 24.705463240388305 -20.80610039003248 0 0 0
167 5 2 0 9.475499185790678 24.92222103116178 -20.974181616617425 0 0 0
168 5 2 0 10.405910256989158 25.138978821935254 -21.14226284320237 0 0 0
169 5 2 0 11.336321328187637 25.35573661270873 -21.310344069787316 0 0 0
170 5 2 0 12.266732399386118 25.572494403482207 -21.47842529637226 0 0 0
171 5 2 0 13.197143470584596 25.78925219425568 -21.646506522957207 0 0 0
172 5 2 0 14.127554541783077 26.006009985029156 -21.814587749542152 0 0 0
173 5 2 0 15.057965612981556 26.22276777580263 -21.982668976127098 0 0 0
174 5 2 0 15.988376684180036 26.439525566576105 -22.150750202712043 0 0 0
175 5 2 0 16.918787755378517 26.656283357349583 -22.31883142929699 0 0 0
176 5 2 0 17.849198826576995 26.873041148123058 -22.486912655881934 0 0 0
177 5 2 0 18.779609897775476 27.089798938896532 -22.65499388246688 0 0 0
178 5 2 0 19.710020968973954 27.306556729670007 -22.823075109051825 0 0 0
179 5 2 0 20.640432040172435 27.523314520443485 -22.99115633563677 0 0 0
180 5 2 0 21.570843111370912 27.74007231121696 -23.159237562221715 0 0 0
181 5 1 0 3.9696181449182557 22.84561903023343 -20.542558988037804 0 0 0
182 5 1 0 4.746858443479825 24.6144873335819 -19.556910752762647 0 0 0
183 5 1 0 5.830440287315215 23.27913461178038 -20.878721441207695 0 0 0
184 5 1 0 6.607680585876784 25.048002915128848 -19.893073205932538 0 0 0
185 5 1 0 7.691262429712174 23.71265019332733 -21.214883894377586 0 0 0
186 5 1 0 8.468502728273743 25.4815184966758 -20.22923565910243 0 0 0
187 5 1 0 9.552084572109134 24.146165774874284 -21.551046347547477 0 0 0
188 5 1 0 10.329324870670703 25.91503407822275 -20.56539811227232 0 0 0
189 5 1 0 11.412906714506093 24.579681356421233 -21.887208800717367 0 0 0
190 5 1 0 12.190147013067662 26.348549659769702 -20.90156056544221 0 0 0
191 5 1 0 13.273728856903052 25.013196937968182 -22.223371253887258 0 0 0
192 5 1 0 14.050969155464621 26.78206524131665 -21.2377230186121 0 0 0
193 5 1 0 15.134550999300012 25.446712519515135 -22.55953370705715 0 0 0
194 5 1 0 15.91179129786158 27.215580822863604 -21.573885471781992 0 0 0
195 5 1 0 16.995373141696973 25.880228101062084 -22.89569616022704 0 0 0
196 5 1 0 17.77261344025854 27.649096404410553 -21.910047924951883 0 0 0
197 5 1 0 18.85619528409393 26.313743682609037 -23.23185861339693 0 0 0
198 5 1 0 19.633435582655498 28.082611985957506 -22.246210378121773 0 0 0
199 5 1 0 20.71701742649089 26.747259264155986 -23.56802106656682 0 0 0
200 5 1 0 21.494257725052456 28.516127567504455 -22.582372831291664 0 0 0
201 6 2 0 -0.7342578405196758 -15.655203760553146 -5.18647834265877 0 0 0
202 6 2 0 -0.6953405662775434 -14.732188399734195 -4.890795929489128 0 0 0
203 6 2 0 -0.6564232920354112 -13.809173038915244 -4.595113516319487 0 0 0
204 6 2 0 -0.617506017793279 -12.886157678096291 -4.299431103149846 0 0 0
205 6 2 0 -0.5785887435511466 -11.963142317277338 -4.003748689980204 0 0 0
206 6 2 0 -0.5396714693090143 -11.040126956458387 -3.7080662768105634 0 0 0
207 6 2 0 -0.5007541950668821 -10.117111595639434 -3.4123838636409216 0 0 0
208 6 2 0 -0.4618369208247498 -9.194096234820483 -3.11670145047128 0 0 0
209 6 2 0 -0.42291964658261755 -8.27108087400153 -2.821019037301639 0 0 0
210 6 2 0 -0.38400237234048523 -7.348065513182578 -2.5253366241319974 0 0 0
211 6 2 0 -0.34508509809835297 -6.425050152363627 -2.2296542109623565 0 0 0
212 6 2 0 -0.3061678238562207 -5.502034791544675 -1.9339717977927147 0 0 0
213 6 2 0 -0.2672505496140884 -4.579019430725722 -1.6382893846230733 0 0 0
214 6 2 0 -0.22833327537195616 -3.6560040699067713 -1.342606971453432 0 0 0
215 6 2 0 -0.18941600112982387 -2.7329887090878184 -1.0469245582837905 0 0 0
216 6 2 0 -0.15049872688769164 -1.8099733482688674 -0.7512421451141496 0 0 0
217 6 2 0 -0.11158145264555935 -0.8869579874499154 -0.45555973194450794 0 0 0
218 6 2 0 -0.0726641784034271 0.036057373369035695 -0.15987731877486677 0 0 0
219 6 2 0 -0.03374690416129472 0.9590727341879903 0.13580509439477506 0 0 0
220 6 2 0 0.005170370080837483 1.8820880950069414 0.43148750756441645 0 0 0
221 6 1 0 0.0009314180338866884 -15.876147227501352 -4.593535901505861 0 0 0
222 6 1 0 -1.4305298248311058 -14.511244932785988 -5.483738370642037 0 0 0
223 6 1 0 0.07876596651815126 -14.03011650586345 -4.002171075166579 0 0 0
224 6 1 0 -1.3526952763468412 -12.665214211148085 -4.892373544302754 0 0 0
225 6 1 0 0.15660051500241579 -12.184085784225545 -3.410806248827296 0 0 0
226 6 1 0 -1.2748607278625768 -10.81918348951018 -4.301008717963471 0 0 0
227 6 1 0 0.23443506348668042 -10.33805506258764 -2.8194414224880133 0 0 0
228 6 1 0 -1.1970261793783123 -8.973152767872277 -3.7096438916241885 0 0 0
229 6 1 0 0.31226961197094494 -8.492024340949737 -2.2280765961487305 0 0 0
230 6 1 0 -1.1191916308940475 -7.127122046234372 -3.1182790652849057 0 0 0
231 6 1 0 0.39010416045520946 -6.645993619311834 -1.6367117698094482 0 0 0
232 6 1 0 -1.041357082409783 -5.281091324596469 -2.526914238945623 0 0 0
233 6 1 0 0.467938708939474 -4.799962897673929 -1.045346943470165 0 0 0
234 6 1 0 -0.9635225339255186 -3.435060602958565 -1.9355494126063404 0 0 0
235 6 1 0 0.5457732574237386 -2.953932176036025 -0.4539821171308822 0 0 0
236 6 1 0 -0.885687985441254 -1.589029881320661 -1.3441845862670578 0 0 0
237 6 1 0 0.6236078059080031 -1.107901454398121 0.13738270920840012 0 0 0
238 6 1 0 -0.8078534369569895 0.25700084031724213 -0.7528197599277753 0 0 0
239 6 1 0 0.7014423543922677 0.7381292672397839 0.7287475355476833 0 0 0
240 6 1 0 -0.730018888472725 2.103031561955148 -0.16145493358849183 0 0 0
241 7 2 0 -7.567346716380818 -9.995236882914867 -14.809197864130052 0 0 0
242 7 2 0 -6.619782084699477 -10.002895933507816 -14.601923630973545 0 0 0
243 7 2 0 -5.672217453018137 -10.010554984100764 -14.394649397817037 0 0 0
244 7 2 0 -4.724652821336794 -10.018214034693711 -14.18737516466053 0 0 0
245 7 2 0 -3.777088189655453 -10.02587308528666 -13.980100931504023 0 0 0
246 7 2 0 -2.8295235579741123 -10.033532135879609 -13.772826698347515 0 0 0
247 7 2 0 -1.88195892629277 -10.041191186472556 -13.565552465191008 0 0 0
248 7 2 0 -0.9343942946114288 -10.048850237065505 -13.3582782320345 0 0 0
249 7 2 0 0.013170337069912552 -10.056509287658454 -13.151003998877993 0 0 0
250 7 2 0 0.9607349687512545 -10.0641683382514 -12.943729765721486 0 0 0
251 7 2 0 1.9082996004325947 -10.07182738884435 -12.736455532564978 0 0 0
252 7 2 0 2.855864232113937 -10.079486439437296 -12.52918129940847 0 0 0
253 7 2 0 3.803428863795279 -10.087145490030245 -12.321907066251963 0 0 0
254 7 2 0 4.750993495476619 -10.094804540623194 -12.114632833095456 0 0 0
255 7 2 0 5.698558127157962 -10.102463591216141 -11.907358599938947 0 0 0
256 7 2 0 6.646122758839302 -10.11012264180909 -11.700084366782441 0 0 0
257 7 2 0 7.5936873905206435 -10.117781692402039 -11.492810133625932 0 0 0
258 7 2 0 8.541252022201984 -10.125440742994986 -11.285535900469426 0 0 0
259 7 2 0 9.488816653883328 -10.133099793587935 -11.078261667312917 0 0 0
260 7 2 0 10.436381285564668 -10.140758844180883 -10.87098743415641 0 0 0
261 7 1 0 -7.411448658692372 -10.608308421164136 -15.544547498384159 0 0 0
262 7 1 0 -6.775680142387925 -9.389824395258549 -13.86657399671944 0 0 0
263 7 1 0 -5.516319395329689 -10.623626522350031 -15.129999032071144 0 0 0
264 7 1 0 -4.880550879025241 -9.405142496444444 -13.452025530406425 0 0 0
265 7 1 0 -3.6211901319670057 -10.638944623535927 -14.715450565758127 0 0 0
266 7 1 0 -2.9854216156625597 -9.42046059763034 -13.03747706409341 0 0 0
267 7 1 0 -1.7260608686043226 -10.654262724721825 -14.300902099445112 0 0 0
268 7 1 0 -1.0902923522998762 -9.435778698816238 -12.622928597780396 0 0 0
269 7 1 0 0.16906839475835977 -10.66958082590772 -13.886353633132098 0 0 0
270 7 1 0 0.8048369110628072 -9.451096800002134 -12.20838013146738 0 0 0
271 7 1 0 2.064197658121042 -10.684898927093617 -13.471805166819083 0 0 0
272 7 1 0 2.6999661744254895 -9.46641490118803 -11.793831665154364 0 0 0
273 7 1 0 3.9593269214837266 -10.700217028279514 -13.057256700506068 0 0 0
274 7 1 0 4.5950954377881725 -9.481733002373925 -11.37928319884135 0 0 0
275 7 1 0 5.854456184846409 -10.71553512946541 -12.642708234193053 0 0 0
276 7 1 0 6.490224701150854 -9.497051103559823 -10.964734732528335 0 0 0
277 7 1 0 7.749585448209091 -10.730853230651306 -12.228159767880038 0 0 0
278 7 1 0 8.385353964513538 -9.512369204745719 -10.55018626621532 0 0 0
279 7 1 0 9.644714711571776 -10.746171331837202 -11.813611301567022 0 0 0
280 7 1 0 10.280483227876221 -9.527687305931615 -10.135637799902305 0 0 0
281 8 2 0 18.55791475170869 -28.285155832617132 -5.46265921565435 0 0 0
282 8 2 0 18.347907498865055 -28.281434607128627 -6.409645544084668 0 0 0
283 8 2 0 18.13790024602142 -28.277713381640122 -7.356631872514985 0 0 0
284 8 2 0 17.92789299317778 -28.273992156151618 -8.303618200945303 0 0 0
285 8 2 0 17.717885740334147 -28.270270930663113 -9.25060452937562 0 0 0
286 8 2 0 17.507878487490512 -28.266549705174604 -10.197590857805938 0 0 0
287 8 2 0 17.297871234646873 -28.2628284796861 -11.144577186236255 0 0 0
288 8 2 0 17.08786398180324 -28.259107254197595 -12.091563514666573 0 0 0
289 8 2 0 16.877856728959603 -28.25538602870909 -13.03854984309689 0 0 0
290 8 2 0 16.66784947611597 -28.251664803220585 -13.985536171527208 0 0 0
291 8 2 0 16.45784222327233 -28.24794357773208 -14.932522499957525 0 0 0
292 8 2 0 16.247834970428695 -28.244222352243575 -15.879508828387843 0 0 0
293 8 2 0 16.03782771758506 -28.24050112675507 -16.82649515681816 0 0 0
294 8 2 0 15.827820464741423 -28.236779901266566 -17.773481485248478 0 0 0
295 8 2 0 15.617813211897786 -28.23305867577806 -18.720467813678795 0 0 0
296 8 2 0 15.407805959054151 -28.229337450289552 -19.66745414210911 0 0 0
297 8 2 0 15.197798706210515 -28.225616224801048 -20.614440470539428 0 0 0
298 8 2 0 14.987791453366878 -28.221894999312543 -21.561426798969748 0 0 0
299 8 2 0 14.777784200523243 -28.218173773824038 -22.50841312740007 0 0 0
300 8 2 0 14.567776947679606 -28.214452548335533 -23.45539945583038 0 0 0
301 8 1 0 17.77351287166615 -28.82930080679497 -5.29084554430446 0 0 0
302 8 1 0 19.132309378907596 -27.73728963295079 -6.581459215434558 0 0 0
303 8 1 0 17.35349836597888 -28.82185835581796 -7.184818201165095 0 0 0
304 8 1 0 18.712294873220323 -27.729847181973778 -8.475431872295193 0 0 0
305 8 1 0 16.933483860291606 -28.81441590484095 -9.07879085802573 0 0 0
306 8 1 0 18.292280367533053 -27.722404730996768 -10.369404529155826 0 0 0
307 8 1 0 16.513469354604332 -28.80697345386394 -10.972763514886367 0 0 0
308 8 1 0 17.87226586184578 -27.71496228001976 -12.263377186016463 0 0 0
309 8 1 0 16.093454848917062 -28.799531002886926 -12.866736171747 0 0 0
310 8 1 0 17.45225135615851 -27.70751982904275 -14.157349842877098 0 0 0
311 8 1 0 15.673440343229789 -28.792088551909917 -14.760708828607635 0 0 0
312 8 1 0 17.032236850471236 -27.70007737806574 -16.051322499737733 0 0 0
313 8 1 0 15.253425837542517 -28.784646100932907 -16.654681485468274 0 0 0
314 8 1 0 16.612222344783962 -27.692634927088726 -17.945295156598366 0 0 0
315 8 1 0 14.833411331855245 -28.777203649955897 -18.548654142328907 0 0 0
316 8 1 0 16.192207839096692 -27.685192476111716 -19.839267813459003 0 0 0
317 8 1 0 14.413396826167974 -28.769761198978888 -20.44262679918954 0 0 0
318 8 1 0 15.772193333409419 -27.677750025134706 -21.733240470319636 0 0 0
319 8 1 0 13.993382320480702 -28.762318748001874 -22.336599456050177 0 0 0
320 8 1 0 15.352178827722147 -27.670307574157697 -23.627213127180273 0 0 0
321 9 2 0 -18.950282838741572 -18.52193827682187 10.681982748022532 0 0 0
322 9 2 0 -18.31404736328638 -17.826168875416073 10.91003835492516 0 0 0
323 9 2 0 -17.67781188783119 -17.130399474010275 11.138093961827785 0 0 0
324 9 2 0 -17.041576412376 -16.434630072604477 11.366149568730412 0 0 0
325 9 2 0 -16.40534093692081 -15.738860671198678 11.59420517563304 0 0 0
326 9 2 0 -15.76910546146562 -15.04309126979288 11.822260782535666 0 0 0
327 9 2 0 -15.132869986010428 -14.347321868387082 12.050316389438294 0 0 0
328 9 2 0 -14.49663451055524 -13.651552466981284 12.27837199634092 0 0 0
329 9 2 0 -13.860399035100048 -12.955783065575487 12.506427603243548 0 0 0
330 9 2 0 -13.224163559644857 -12.260013664169689 12.734483210146175 0 0 0
331 9 2 0 -12.587928084189668 -11.564244262763893 12.962538817048802 0 0 0
332 9 2 0 -11.951692608734477 -10.868474861358093 13.19059442395143 0 0 0
333 9 2 0 -11.315457133279287 -10.172705459952295 13.418650030854057 0 0 0
334 9 2 0 -10.679221657824097 -9.4769360585465 13.646705637756682 0 0 0
335 9 2 0 -10.042986182368907 -8.7811666571407 13.87476124465931 0 0 0
336 9 2 0 -9.406750706913716 -8.085397255734904 14.102816851561936 0 0 0
337 9 2 0 -8.770515231458525 -7.389627854329105 14.330872458464563 0 0 0
338 9 2 0 -8.134279756003336 -6.693858452923308 14.55892806536719 0 0 0
339 9 2 0 -7.498044280548144 -5.998089051517509 14.786983672269818 0 0 0
340 9 2 0 -6.861808805092954 -5.302319650111712 15.015039279172445 0 0 0
341 9 1 0 -18.30126866774142 -19.19770392565698 10.933023369626781 0 0 0
342 9 1 0 -18.96306153428653 -17.15040322658096 10.65899773332091 0 0 0
343 9 1 0 -17.02879771683104 -17.806165122845385 11.389134583432035 0 0 0
344 9 1 0 -17.69059058337615 -15.758864423769364 11.115108947126163 0 0 0
345 9 1 0 -15.75632676592066 -16.41462632003379 11.845245797237288 0 0 0
346 9 1 0 -16.418119632465768 -14.367325620957768 11.571220160931418 0 0 0
347 9 1 0 -14.483855815010278 -15.023087517222194 12.301357011042542 0 0 0
348 9 1 0 -15.14564868155539 -12.975786818146172 12.027331374736672 0 0 0
349 9 1 0 -13.211384864099898 -13.631548714410599 12.757468224847797 0 0 0
350 9 1 0 -13.873177730645008 -11.584248015334577 12.483442588541926 0 0 0
351 9 1 0 -11.938913913189518 -12.240009911599005 13.213579438653051 0 0 0
352 9 1 0 -12.600706779734628 -10.192709212522981 12.939553802347179 0 0 0
353 9 1 0 -10.666442962279136 -10.848471108787408 13.669690652458305 0 0 0
354 9 1 0 -11.328235828824246 -8.801170409711386 13.395665016152433 0 0 0
355 9 1 0 -9.393972011368756 -9.456932305975812 14.125801866263558 0 0 0
356 9 1 0 -10.055764877913866 -7.409631606899791 13.851776229957688 0 0 0
357 9 1 0 -8.121501060458375 -8.065393503164216 14.581913080068812 0 0 0
358 9 1 0 -8.783293927003486 -6.018092804088196 14.307887443762942 0 0 0
359 9 1 0 -6.849030109547994 -6.673854700352621 15.038024293874066 0 0 0
360 9 1 0 -7.510822976093104 -4.6265540012766 14.763998657568196 0 0 0
361 10 2 0 1.8402820574522676 -28.00593212986593 1.783505431711787 0 1 0
362 10 2 0 2.1649476864551738 -28.4426558222218 0.9805330499456373 0 1 0
363 10 2 0 2.4896133154580795 -28.879379514577668 0.17756066817948923 0 1 0
364 10 2 0 2.8142789444609857 -29.316103206933537 -0.6254117135866606 0 1 0
365 10 2 0 3.138944573463892 -29.752826899289406 -1.4283840953528104 0 1 0
366 10 2 0 3.463610202466798 29.810449408354724 -2.2313564771189593 0 0 0
367 10 2 0 3.7882758314697043 29.373725715998855 -3.034328858885109 0 0 0
368 10 2 0 4.1129414604726104 28.937002023642986 -3.837301240651258 0 0 0
369 10 2 0 4.437607089475517 28.500278331287117 -4.640273622417407 0 0 0
370 10 2 0 4.762272718478423 28.063554638931247 -5.443246004183557 0 0 0
371 10 2 0 5.086938347481328 27.626830946575378 -6.246218385949706 0 0 0
372 10 2 0 5.411603976484235 27.19010725421951 -7.049190767715856 0 0 0
373 10 2 0 5.736269605487141 26.75338356186364 -7.8521631494820054 0 0 0
374 10 2 0 6.060935234490047 26.31665986950777 -8.655135531248154 0 0 0
375 10 2 0 6.385600863492954 25.879936177151897 -9.458107913014304 0 0 0
376 10 2 0 6.710266492495859 25.44321248479603 -10.261080294780452 0 0 0
377 10 2 0 7.034932121498765 25.00648879244016 -11.064052676546602 0 0 0
378 10 2 0 7.3595977505016705 24.56976510008429 -11.86702505831275 0 0 0
379 10 2 0 7.6842633795045785 24.13304140772842 -12.669997440078902 0 0 0
380 10 2 0 8.008929008507483 23.69631771537255 -13.47296982184505 0 0 0
381 10 1 0 1.2467647174127356 -27.45860924203552 1.2458486419942405 0 1 0
382 10 1 0 2.7584650264947057 -28.989978710052206 1.5181898396631848 0 1 0
383 10 1 0 1.8960959754185476 -28.332056626747256 -0.36009612153805826 0 1 0
384 10 1 0 3.4077962845005176 -29.86342609476395 -0.08775492386911399 0 1 0
385 10 1 0 2.54542723342436 -29.205504011458995 -1.966040885070357 0 1 0
386 10 1 0 4.05712754250633 29.263126520524313 -1.6936996874014119 0 0 0
387 10 1 0 3.1947584914301723 29.921048603829266 -3.571985648602656 0 0 0
388 10 1 0 4.706458800512142 28.389679135812575 -3.299644450933711 0 0 0
389 10 1 0 3.8440897494359847 29.047601219117528 -5.1779304121349545 0 0 0
390 10 1 0 5.355790058517955 27.516231751100836 -4.90558921446601 0 0 0
391 10 1 0 4.493421007441797 28.17415383440579 -6.783875175667252 0 0 0
392 10 1 0 6.005121316523766 26.642784366389098 -6.511533977998308 0 0 0
393 10 1 0 5.142752265447609 27.300706449694047 -8.389819939199553 0 0 0
394 10 1 0 6.654452574529579 25.76933698167736 -8.117478741530608 0 0 0
395 10 1 0 5.792083523453422 26.42725906498231 -9.99576470273185 0 0 0
396 10 1 0 7.303783832535391 24.89588959696562 -9.723423505062906 0 0 0
397 10 1 0 6.441414781459233 25.55381168027057 -11.601709466264149 0 0 0
398 10 1 0 7.953115090541203 24.022442212253882 -11.329368268595204 0 0 0
399 10 1 0 7.090746039465046 24.68036429555883 -13.20765422979645 0 0 0
400 10 1 0 8.602446348547016 23.14899482754214 -12.935313032127503 0 0 0
401 11 2 0 -19.549814614546015 -25.86143748678888 21.498063143445428 0 0 0
402 11 2 0 -18.79867649562904 -25.469682237412442 21.025602191729973 0 0 0
403 11 2 0 -18.047538376712065 -25.07792698803601 20.55314124001452 0 0 0
404 11 2 0 -17.29640025779509 -24.68617173865957 20.08068028829906 0 0 0
405 11 2 0 -16.545262138878115 -24.294416489283133 19.608219336583605 0 0 0
406 11 2 0 -15.794124019961139 -23.902661239906696 19.13575838486815 0 0 0
407 11 2 0 -15.042985901044164 -23.510905990530258 18.663297433152692 0 0 0